<?xml version="1.0" encoding="UTF-8"?>

<!-- generated on 03/31/21 04:44:48 by Eclipse SUMO GUI Version 1.7.0
<configuration xmlns:xsi="http://www.w3.org/2001/XMLSchema-instance" xsi:noNamespaceSchemaLocation="http://sumo.dlr.de/xsd/sumoConfiguration.xsd">

    <input>
        <net-file value="data/tlcs.net.xml"/>
        <route-files value="data/tlcs.rou.xml"/>
        <additional-files value="data/tlcs.det.xml"/>
    </input>

    <output>
        <tripinfo-output value="tripinfo.xml"/>
    </output>

    <time>
        <begin value="0"/>
    </time>

    <report>
        <verbose value="true"/>
        <no-step-log value="true"/>
    </report>

    <traci_server>
        <remote-port value="50056"/>
    </traci_server>

</configuration>
-->

<tripinfos xmlns:xsi="http://www.w3.org/2001/XMLSchema-instance" xsi:noNamespaceSchemaLocation="http://sumo.dlr.de/xsd/tripinfo_file.xsd">
    <tripinfo id="EW_0" depart="0.00" departLane="E3_0" departPos="5.10" departSpeed="0.00" departDelay="0.00" arrival="202.00" arrivalLane="-E1_0" arrivalPos="1386.40" arrivalSpeed="13.56" duration="202.00" routeLength="2795.12" waitingTime="0.00" waitingCount="0" stopTime="0.00" timeLoss="11.52" rerouteNo="0" devices="tripinfo_EW_0" vType="typeNormal" speedFactor="1.06" vaporized=""/>
    <tripinfo id="EW_3" depart="3.00" departLane="E3_0" departPos="5.10" departSpeed="0.00" departDelay="2.00" arrival="203.00" arrivalLane="-E1_0" arrivalPos="1386.40" arrivalSpeed="14.53" duration="200.00" routeLength="2795.12" waitingTime="0.00" waitingCount="0" stopTime="0.00" timeLoss="14.07" rerouteNo="0" devices="tripinfo_EW_3" vType="typeNormal" speedFactor="1.08" vaporized=""/>
    <tripinfo id="WS_10" depart="7.00" departLane="E1_0" departPos="5.10" departSpeed="0.00" departDelay="0.00" arrival="204.00" arrivalLane="-E4_0" arrivalPos="1386.40" arrivalSpeed="14.99" duration="197.00" routeLength="2782.27" waitingTime="0.00" waitingCount="0" stopTime="0.00" timeLoss="12.19" rerouteNo="0" devices="tripinfo_WS_10" vType="typeNormal" speedFactor="1.09" vaporized=""/>
    <tripinfo id="WS_13" depart="10.00" departLane="E1_0" departPos="5.10" departSpeed="0.00" departDelay="2.00" arrival="205.00" arrivalLane="-E4_0" arrivalPos="1386.40" arrivalSpeed="15.26" duration="195.00" routeLength="2782.27" waitingTime="0.00" waitingCount="0" stopTime="0.00" timeLoss="16.14" rerouteNo="0" devices="tripinfo_WS_13" vType="typeNormal" speedFactor="1.12" vaporized=""/>
    <tripinfo id="WS_19" depart="19.00" departLane="E1_0" departPos="5.10" departSpeed="0.00" departDelay="6.00" arrival="207.00" arrivalLane="-E4_0" arrivalPos="1386.40" arrivalSpeed="15.59" duration="188.00" routeLength="2782.27" waitingTime="0.00" waitingCount="0" stopTime="0.00" timeLoss="14.21" rerouteNo="0" devices="tripinfo_WS_19" vType="typeNormal" speedFactor="1.16" vaporized=""/>
    <tripinfo id="EW_37" depart="28.00" departLane="E3_0" departPos="5.10" departSpeed="0.00" departDelay="2.00" arrival="211.00" arrivalLane="-E1_0" arrivalPos="1386.40" arrivalSpeed="16.09" duration="183.00" routeLength="2795.12" waitingTime="0.00" waitingCount="0" stopTime="0.00" timeLoss="12.18" rerouteNo="0" devices="tripinfo_EW_37" vType="typeNormal" speedFactor="1.18" vaporized=""/>
    <tripinfo id="WE_2" depart="1.00" departLane="E1_0" departPos="5.10" departSpeed="0.00" departDelay="0.00" arrival="213.00" arrivalLane="-E3_0" arrivalPos="1386.40" arrivalSpeed="13.76" duration="212.00" routeLength="2795.12" waitingTime="0.00" waitingCount="0" stopTime="0.00" timeLoss="12.50" rerouteNo="0" devices="tripinfo_WE_2" vType="typeNormal" speedFactor="1.01" vaporized=""/>
    <tripinfo id="WS_14" depart="13.00" departLane="E1_0" departPos="5.10" departSpeed="0.00" departDelay="3.00" arrival="230.00" arrivalLane="-E4_0" arrivalPos="1386.40" arrivalSpeed="13.01" duration="217.00" routeLength="2782.27" waitingTime="0.00" waitingCount="0" stopTime="0.00" timeLoss="13.64" rerouteNo="0" devices="tripinfo_WS_14" vType="typeNormal" speedFactor="0.99" vaporized=""/>
    <tripinfo id="WE_20" depart="22.00" departLane="E1_0" departPos="5.10" departSpeed="0.00" departDelay="8.00" arrival="232.00" arrivalLane="-E3_0" arrivalPos="1386.40" arrivalSpeed="13.10" duration="210.00" routeLength="2795.12" waitingTime="0.00" waitingCount="0" stopTime="0.00" timeLoss="12.29" rerouteNo="0" devices="tripinfo_WE_20" vType="typeNormal" speedFactor="1.02" vaporized=""/>
    <tripinfo id="EW_21" depart="19.00" departLane="E3_0" departPos="5.10" departSpeed="0.00" departDelay="5.00" arrival="234.00" arrivalLane="-E1_0" arrivalPos="1386.40" arrivalSpeed="13.05" duration="215.00" routeLength="2795.12" waitingTime="0.00" waitingCount="0" stopTime="0.00" timeLoss="15.33" rerouteNo="0" devices="tripinfo_EW_21" vType="typeNormal" speedFactor="1.01" vaporized=""/>
    <tripinfo id="WS_17" depart="16.00" departLane="E1_0" departPos="5.10" departSpeed="0.00" departDelay="5.00" arrival="245.00" arrivalLane="-E4_0" arrivalPos="1386.40" arrivalSpeed="12.33" duration="229.00" routeLength="2782.27" waitingTime="0.00" waitingCount="0" stopTime="0.00" timeLoss="15.32" rerouteNo="0" devices="tripinfo_WS_17" vType="typeNormal" speedFactor="0.94" vaporized=""/>
    <tripinfo id="EW_18" depart="16.00" departLane="E3_0" departPos="5.10" departSpeed="0.00" departDelay="4.00" arrival="247.00" arrivalLane="-E1_0" arrivalPos="1386.40" arrivalSpeed="12.65" duration="231.00" routeLength="2795.12" waitingTime="0.00" waitingCount="0" stopTime="0.00" timeLoss="15.13" rerouteNo="0" devices="tripinfo_EW_18" vType="typeNormal" speedFactor="0.94" vaporized=""/>
    <tripinfo id="WS_30" depart="34.00" departLane="E1_0" departPos="5.10" departSpeed="0.00" departDelay="13.00" arrival="247.00" arrivalLane="-E4_0" arrivalPos="1386.40" arrivalSpeed="16.11" duration="213.00" routeLength="2782.27" waitingTime="0.00" waitingCount="0" stopTime="0.00" timeLoss="41.86" rerouteNo="0" devices="tripinfo_WS_30" vType="typeNormal" speedFactor="1.18" vaporized=""/>
    <tripinfo id="EN_15" depart="13.00" departLane="E3_0" departPos="5.10" departSpeed="0.00" departDelay="3.00" arrival="250.00" arrivalLane="-E2_0" arrivalPos="1386.40" arrivalSpeed="12.14" duration="237.00" routeLength="2782.27" waitingTime="0.00" waitingCount="0" stopTime="0.00" timeLoss="19.69" rerouteNo="0" devices="tripinfo_EN_15" vType="typeNormal" speedFactor="0.93" vaporized=""/>
    <tripinfo id="EN_40" depart="31.00" departLane="E3_0" departPos="5.10" departSpeed="0.00" departDelay="3.00" arrival="251.00" arrivalLane="-E2_0" arrivalPos="1386.40" arrivalSpeed="13.86" duration="220.00" routeLength="2782.27" waitingTime="0.00" waitingCount="0" stopTime="0.00" timeLoss="25.14" rerouteNo="0" devices="tripinfo_EN_40" vType="typeNormal" speedFactor="1.03" vaporized=""/>
    <tripinfo id="WE_27" depart="28.00" departLane="E1_0" departPos="5.10" departSpeed="0.00" departDelay="9.00" arrival="255.00" arrivalLane="-E3_0" arrivalPos="1386.40" arrivalSpeed="13.10" duration="227.00" routeLength="2795.12" waitingTime="0.00" waitingCount="0" stopTime="0.00" timeLoss="14.35" rerouteNo="0" devices="tripinfo_WE_27" vType="typeNormal" speedFactor="0.95" vaporized=""/>
    <tripinfo id="WE_38" depart="43.00" departLane="E1_0" departPos="5.10" departSpeed="0.00" departDelay="16.00" arrival="257.00" arrivalLane="-E3_0" arrivalPos="1386.40" arrivalSpeed="14.23" duration="214.00" routeLength="2795.12" waitingTime="0.00" waitingCount="0" stopTime="0.00" timeLoss="30.66" rerouteNo="0" devices="tripinfo_WE_38" vType="typeNormal" speedFactor="1.10" vaporized=""/>
    <tripinfo id="EW_9" depart="7.00" departLane="E3_0" departPos="5.10" departSpeed="0.00" departDelay="0.00" arrival="260.00" arrivalLane="-E1_0" arrivalPos="1386.40" arrivalSpeed="11.08" duration="253.00" routeLength="2795.12" waitingTime="0.00" waitingCount="0" stopTime="0.00" timeLoss="18.17" rerouteNo="0" devices="tripinfo_EW_9" vType="typeNormal" speedFactor="0.86" vaporized=""/>
    <tripinfo id="WE_23" depart="25.00" departLane="E1_0" departPos="5.10" departSpeed="0.00" departDelay="9.00" arrival="267.00" arrivalLane="-E3_0" arrivalPos="1386.40" arrivalSpeed="12.27" duration="242.00" routeLength="2795.12" waitingTime="0.00" waitingCount="0" stopTime="0.00" timeLoss="14.82" rerouteNo="0" devices="tripinfo_WE_23" vType="typeNormal" speedFactor="0.89" vaporized=""/>
    <tripinfo id="WE_29" depart="31.00" departLane="E1_0" departPos="5.10" departSpeed="0.00" departDelay="10.00" arrival="268.00" arrivalLane="-E3_0" arrivalPos="1386.40" arrivalSpeed="12.82" duration="237.00" routeLength="2795.12" waitingTime="0.00" waitingCount="0" stopTime="0.00" timeLoss="20.68" rerouteNo="0" devices="tripinfo_WE_29" vType="typeNormal" speedFactor="0.93" vaporized=""/>
    <tripinfo id="EW_25" depart="22.00" departLane="E3_0" departPos="5.10" departSpeed="0.00" departDelay="5.00" arrival="269.00" arrivalLane="-E1_0" arrivalPos="1386.40" arrivalSpeed="11.96" duration="247.00" routeLength="2795.12" waitingTime="0.00" waitingCount="0" stopTime="0.00" timeLoss="15.90" rerouteNo="0" devices="tripinfo_EW_25" vType="typeNormal" speedFactor="0.87" vaporized=""/>
    <tripinfo id="WE_32" depart="37.00" departLane="E1_0" departPos="5.10" departSpeed="0.00" departDelay="14.00" arrival="270.00" arrivalLane="-E3_0" arrivalPos="1386.40" arrivalSpeed="13.51" duration="233.00" routeLength="2795.12" waitingTime="0.00" waitingCount="0" stopTime="0.00" timeLoss="32.31" rerouteNo="0" devices="tripinfo_WE_32" vType="typeNormal" speedFactor="1.01" vaporized=""/>
    <tripinfo id="EW_51" depart="43.00" departLane="E3_0" departPos="5.10" departSpeed="0.00" departDelay="3.00" arrival="271.00" arrivalLane="-E1_0" arrivalPos="1386.40" arrivalSpeed="15.61" duration="228.00" routeLength="2795.12" waitingTime="0.00" waitingCount="0" stopTime="0.00" timeLoss="55.03" rerouteNo="0" devices="tripinfo_EW_51" vType="typeNormal" speedFactor="1.17" vaporized=""/>
    <tripinfo id="WE_36" depart="40.00" departLane="E1_0" departPos="5.10" departSpeed="0.00" departDelay="14.00" arrival="272.00" arrivalLane="-E3_0" arrivalPos="1386.40" arrivalSpeed="12.93" duration="232.00" routeLength="2795.12" waitingTime="0.00" waitingCount="0" stopTime="0.00" timeLoss="24.62" rerouteNo="0" devices="tripinfo_WE_36" vType="typeNormal" speedFactor="0.97" vaporized=""/>
    <tripinfo id="EW_52" depart="46.00" departLane="E3_0" departPos="5.10" departSpeed="0.00" departDelay="5.00" arrival="272.00" arrivalLane="-E1_0" arrivalPos="1386.40" arrivalSpeed="13.80" duration="226.00" routeLength="2795.12" waitingTime="0.00" waitingCount="0" stopTime="0.00" timeLoss="28.01" rerouteNo="0" devices="tripinfo_EW_52" vType="typeNormal" speedFactor="1.02" vaporized=""/>
    <tripinfo id="WS_55" depart="61.00" departLane="E1_0" departPos="5.10" departSpeed="0.00" departDelay="19.00" arrival="277.00" arrivalLane="-E4_0" arrivalPos="1386.40" arrivalSpeed="13.77" duration="216.00" routeLength="2782.27" waitingTime="0.00" waitingCount="0" stopTime="0.00" timeLoss="13.75" rerouteNo="0" devices="tripinfo_WS_55" vType="typeNormal" speedFactor="1.00" vaporized=""/>
    <tripinfo id="NS_28" depart="19.00" departLane="E2_0" departPos="5.10" departSpeed="0.00" departDelay="0.00" arrival="284.00" arrivalLane="-E4_0" arrivalPos="1386.40" arrivalSpeed="15.34" duration="265.00" routeLength="2795.12" waitingTime="70.00" waitingCount="1" stopTime="0.00" timeLoss="86.25" rerouteNo="0" devices="tripinfo_NS_28" vType="typeNormal" speedFactor="1.13" vaporized=""/>
    <tripinfo id="NS_33" depart="24.00" departLane="E2_0" departPos="5.10" departSpeed="0.00" departDelay="0.00" arrival="285.00" arrivalLane="-E4_0" arrivalPos="1386.40" arrivalSpeed="15.81" duration="261.00" routeLength="2795.12" waitingTime="69.00" waitingCount="1" stopTime="0.00" timeLoss="88.91" rerouteNo="0" devices="tripinfo_NS_33" vType="typeNormal" speedFactor="1.17" vaporized=""/>
    <tripinfo id="WE_39" depart="46.00" departLane="E1_0" departPos="5.10" departSpeed="0.00" departDelay="18.00" arrival="285.00" arrivalLane="-E3_0" arrivalPos="1386.40" arrivalSpeed="11.99" duration="239.00" routeLength="2795.12" waitingTime="0.00" waitingCount="0" stopTime="0.00" timeLoss="14.98" rerouteNo="0" devices="tripinfo_WE_39" vType="typeNormal" speedFactor="0.90" vaporized=""/>
    <tripinfo id="WE_61" depart="67.00" departLane="E1_0" departPos="5.10" departSpeed="0.00" departDelay="21.00" arrival="286.00" arrivalLane="-E3_0" arrivalPos="1386.40" arrivalSpeed="14.86" duration="219.00" routeLength="2795.12" waitingTime="0.00" waitingCount="0" stopTime="0.00" timeLoss="39.18" rerouteNo="0" devices="tripinfo_WE_61" vType="typeNormal" speedFactor="1.12" vaporized=""/>
    <tripinfo id="WE_54" depart="58.00" departLane="E1_0" departPos="5.10" departSpeed="0.00" departDelay="16.00" arrival="288.00" arrivalLane="-E3_0" arrivalPos="1386.40" arrivalSpeed="13.85" duration="230.00" routeLength="2795.12" waitingTime="0.00" waitingCount="0" stopTime="0.00" timeLoss="29.17" rerouteNo="0" devices="tripinfo_WE_54" vType="typeNormal" speedFactor="1.00" vaporized=""/>
    <tripinfo id="WE_47" depart="52.00" departLane="E1_0" departPos="5.10" departSpeed="0.00" departDelay="16.00" arrival="291.00" arrivalLane="-E3_0" arrivalPos="1386.40" arrivalSpeed="12.42" duration="239.00" routeLength="2795.12" waitingTime="0.00" waitingCount="0" stopTime="0.00" timeLoss="14.68" rerouteNo="0" devices="tripinfo_WE_47" vType="typeNormal" speedFactor="0.90" vaporized=""/>
    <tripinfo id="EW_50" depart="40.00" departLane="E3_0" departPos="5.10" departSpeed="0.00" departDelay="1.00" arrival="291.00" arrivalLane="-E1_0" arrivalPos="1386.40" arrivalSpeed="11.09" duration="251.00" routeLength="2795.12" waitingTime="0.00" waitingCount="0" stopTime="0.00" timeLoss="15.57" rerouteNo="0" devices="tripinfo_EW_50" vType="typeNormal" speedFactor="0.85" vaporized=""/>
    <tripinfo id="WE_58" depart="64.00" departLane="E1_0" departPos="5.10" departSpeed="0.00" departDelay="20.00" arrival="292.00" arrivalLane="-E3_0" arrivalPos="1386.40" arrivalSpeed="13.74" duration="228.00" routeLength="2795.12" waitingTime="0.00" waitingCount="0" stopTime="0.00" timeLoss="31.19" rerouteNo="0" devices="tripinfo_WE_58" vType="typeNormal" speedFactor="1.02" vaporized=""/>
    <tripinfo id="EW_59" depart="52.00" departLane="E3_0" departPos="5.10" departSpeed="0.00" departDelay="8.00" arrival="293.00" arrivalLane="-E1_0" arrivalPos="1386.40" arrivalSpeed="13.29" duration="241.00" routeLength="2795.12" waitingTime="0.00" waitingCount="0" stopTime="0.00" timeLoss="33.05" rerouteNo="0" devices="tripinfo_EW_59" vType="typeNormal" speedFactor="0.97" vaporized=""/>
    <tripinfo id="EN_82" depart="82.00" departLane="E3_0" departPos="5.10" departSpeed="0.00" departDelay="11.00" arrival="293.00" arrivalLane="-E2_0" arrivalPos="1386.40" arrivalSpeed="13.74" duration="211.00" routeLength="2782.27" waitingTime="0.00" waitingCount="0" stopTime="0.00" timeLoss="13.05" rerouteNo="0" devices="tripinfo_EN_82" vType="typeNormal" speedFactor="1.02" vaporized=""/>
    <tripinfo id="EW_68" depart="61.00" departLane="E3_0" departPos="5.10" departSpeed="0.00" departDelay="8.00" arrival="295.00" arrivalLane="-E1_0" arrivalPos="1386.40" arrivalSpeed="14.15" duration="234.00" routeLength="2795.12" waitingTime="0.00" waitingCount="0" stopTime="0.00" timeLoss="39.78" rerouteNo="0" devices="tripinfo_EW_68" vType="typeNormal" speedFactor="1.04" vaporized=""/>
    <tripinfo id="EW_56" depart="49.00" departLane="E3_0" departPos="5.10" departSpeed="0.00" departDelay="6.00" arrival="297.00" arrivalLane="-E1_0" arrivalPos="1386.40" arrivalSpeed="12.38" duration="248.00" routeLength="2795.12" waitingTime="0.00" waitingCount="0" stopTime="0.00" timeLoss="23.44" rerouteNo="0" devices="tripinfo_EW_56" vType="typeNormal" speedFactor="0.90" vaporized=""/>
    <tripinfo id="EW_64" depart="55.00" departLane="E3_0" departPos="5.10" departSpeed="0.00" departDelay="6.00" arrival="299.00" arrivalLane="-E1_0" arrivalPos="1386.40" arrivalSpeed="12.80" duration="244.00" routeLength="2795.12" waitingTime="0.00" waitingCount="0" stopTime="0.00" timeLoss="28.42" rerouteNo="0" devices="tripinfo_EW_64" vType="typeNormal" speedFactor="0.94" vaporized=""/>
    <tripinfo id="EW_76" depart="70.00" departLane="E3_0" departPos="5.10" departSpeed="0.00" departDelay="9.00" arrival="300.00" arrivalLane="-E1_0" arrivalPos="1386.40" arrivalSpeed="13.71" duration="230.00" routeLength="2795.12" waitingTime="0.00" waitingCount="0" stopTime="0.00" timeLoss="34.87" rerouteNo="0" devices="tripinfo_EW_76" vType="typeNormal" speedFactor="1.03" vaporized=""/>
    <tripinfo id="EW_79" depart="76.00" departLane="E3_0" departPos="5.10" departSpeed="0.00" departDelay="8.00" arrival="302.00" arrivalLane="-E1_0" arrivalPos="1386.40" arrivalSpeed="14.71" duration="226.00" routeLength="2795.12" waitingTime="0.00" waitingCount="0" stopTime="0.00" timeLoss="40.28" rerouteNo="0" devices="tripinfo_EW_79" vType="typeNormal" speedFactor="1.09" vaporized=""/>
    <tripinfo id="NE_1" depart="0.00" departLane="E2_0" departPos="5.10" departSpeed="0.00" departDelay="0.00" arrival="303.00" arrivalLane="-E3_0" arrivalPos="1386.40" arrivalSpeed="12.96" duration="303.00" routeLength="2792.21" waitingTime="69.00" waitingCount="1" stopTime="0.00" timeLoss="87.88" rerouteNo="0" devices="tripinfo_NE_1" vType="typeNormal" speedFactor="0.94" vaporized=""/>
    <tripinfo id="EW_78" depart="73.00" departLane="E3_0" departPos="5.10" departSpeed="0.00" departDelay="6.00" arrival="304.00" arrivalLane="-E1_0" arrivalPos="1386.40" arrivalSpeed="13.15" duration="231.00" routeLength="2795.12" waitingTime="0.00" waitingCount="0" stopTime="0.00" timeLoss="30.49" rerouteNo="0" devices="tripinfo_EW_78" vType="typeNormal" speedFactor="1.01" vaporized=""/>
    <tripinfo id="NW_4" depart="3.00" departLane="E2_0" departPos="5.10" departSpeed="0.00" departDelay="2.00" arrival="305.00" arrivalLane="-E1_0" arrivalPos="1386.40" arrivalSpeed="13.79" duration="302.00" routeLength="2782.27" waitingTime="77.00" waitingCount="1" stopTime="0.00" timeLoss="106.93" rerouteNo="0" devices="tripinfo_NW_4" vType="typeNormal" speedFactor="1.03" vaporized=""/>
    <tripinfo id="NE_34" depart="27.00" departLane="E2_0" departPos="5.10" departSpeed="0.00" departDelay="3.00" arrival="305.00" arrivalLane="-E3_0" arrivalPos="1386.40" arrivalSpeed="13.66" duration="278.00" routeLength="2792.21" waitingTime="50.00" waitingCount="1" stopTime="0.00" timeLoss="74.62" rerouteNo="0" devices="tripinfo_NE_34" vType="typeNormal" speedFactor="0.99" vaporized=""/>
    <tripinfo id="EN_85" depart="85.00" departLane="E3_0" departPos="5.10" departSpeed="0.00" departDelay="12.00" arrival="305.00" arrivalLane="-E2_0" arrivalPos="1386.40" arrivalSpeed="13.14" duration="220.00" routeLength="2782.27" waitingTime="0.00" waitingCount="0" stopTime="0.00" timeLoss="13.85" rerouteNo="0" devices="tripinfo_EN_85" vType="typeNormal" speedFactor="0.98" vaporized=""/>
    <tripinfo id="NE_53" depart="41.00" departLane="E2_0" departPos="5.10" departSpeed="0.00" departDelay="0.00" arrival="306.00" arrivalLane="-E3_0" arrivalPos="1386.40" arrivalSpeed="15.09" duration="265.00" routeLength="2792.21" waitingTime="48.00" waitingCount="1" stopTime="0.00" timeLoss="80.77" rerouteNo="0" devices="tripinfo_NE_53" vType="typeNormal" speedFactor="1.10" vaporized=""/>
    <tripinfo id="EN_89" depart="88.00" departLane="E3_0" departPos="5.10" departSpeed="0.00" departDelay="8.00" arrival="307.00" arrivalLane="-E2_0" arrivalPos="1386.40" arrivalSpeed="13.05" duration="219.00" routeLength="2782.27" waitingTime="0.00" waitingCount="0" stopTime="0.00" timeLoss="22.00" rerouteNo="0" devices="tripinfo_EN_89" vType="typeNormal" speedFactor="1.02" vaporized=""/>
    <tripinfo id="NW_8" depart="9.00" departLane="E2_0" departPos="5.10" departSpeed="0.00" departDelay="4.00" arrival="308.00" arrivalLane="-E1_0" arrivalPos="1386.40" arrivalSpeed="11.88" duration="299.00" routeLength="2782.27" waitingTime="62.00" waitingCount="1" stopTime="0.00" timeLoss="83.87" rerouteNo="0" devices="tripinfo_NW_8" vType="typeNormal" speedFactor="0.94" vaporized=""/>
    <tripinfo id="NE_116" depart="98.00" departLane="E2_0" departPos="5.10" departSpeed="0.00" departDelay="0.00" arrival="308.00" arrivalLane="-E3_0" arrivalPos="1386.40" arrivalSpeed="15.58" duration="210.00" routeLength="2792.21" waitingTime="0.00" waitingCount="0" stopTime="0.00" timeLoss="38.09" rerouteNo="0" devices="tripinfo_NE_116" vType="typeNormal" speedFactor="1.18" vaporized=""/>
    <tripinfo id="NW_45" depart="34.00" departLane="E2_0" departPos="5.10" departSpeed="0.00" departDelay="0.00" arrival="309.00" arrivalLane="-E1_0" arrivalPos="1386.40" arrivalSpeed="13.97" duration="275.00" routeLength="2782.27" waitingTime="53.00" waitingCount="1" stopTime="0.00" timeLoss="89.99" rerouteNo="0" devices="tripinfo_NW_45" vType="typeNormal" speedFactor="1.09" vaporized=""/>
    <tripinfo id="NE_105" depart="95.00" departLane="E2_0" departPos="5.10" departSpeed="0.00" departDelay="2.00" arrival="310.00" arrivalLane="-E3_0" arrivalPos="1386.40" arrivalSpeed="14.88" duration="215.00" routeLength="2792.21" waitingTime="0.00" waitingCount="0" stopTime="0.00" timeLoss="26.09" rerouteNo="0" devices="tripinfo_NE_105" vType="typeNormal" speedFactor="1.07" vaporized=""/>
    <tripinfo id="NW_46" depart="37.00" departLane="E2_0" departPos="5.10" departSpeed="0.00" departDelay="2.00" arrival="311.00" arrivalLane="-E1_0" arrivalPos="1386.40" arrivalSpeed="13.10" duration="274.00" routeLength="2782.27" waitingTime="43.00" waitingCount="1" stopTime="0.00" timeLoss="72.29" rerouteNo="0" devices="tripinfo_NW_46" vType="typeNormal" speedFactor="1.00" vaporized=""/>
    <tripinfo id="EN_96" depart="97.00" departLane="E3_0" departPos="5.10" departSpeed="0.00" departDelay="12.00" arrival="312.00" arrivalLane="-E2_0" arrivalPos="1386.40" arrivalSpeed="12.97" duration="215.00" routeLength="2782.27" waitingTime="0.00" waitingCount="0" stopTime="0.00" timeLoss="15.52" rerouteNo="0" devices="tripinfo_EN_96" vType="typeNormal" speedFactor="1.01" vaporized=""/>
    <tripinfo id="NW_99" depart="89.00" departLane="E2_0" departPos="5.10" departSpeed="0.00" departDelay="3.00" arrival="313.00" arrivalLane="-E1_0" arrivalPos="1386.40" arrivalSpeed="14.73" duration="224.00" routeLength="2782.27" waitingTime="3.00" waitingCount="1" stopTime="0.00" timeLoss="39.80" rerouteNo="0" devices="tripinfo_NW_99" vType="typeNormal" speedFactor="1.10" vaporized=""/>
    <tripinfo id="NS_16" depart="12.00" departLane="E2_0" departPos="5.10" departSpeed="0.00" departDelay="1.00" arrival="316.00" arrivalLane="-E4_0" arrivalPos="1386.40" arrivalSpeed="11.76" duration="304.00" routeLength="2795.12" waitingTime="53.00" waitingCount="1" stopTime="0.00" timeLoss="74.02" rerouteNo="0" devices="tripinfo_NS_16" vType="typeNormal" speedFactor="0.88" vaporized=""/>
    <tripinfo id="NS_5" depart="6.00" departLane="E2_0" departPos="5.10" departSpeed="0.00" departDelay="4.00" arrival="325.00" arrivalLane="-E4_0" arrivalPos="1386.40" arrivalSpeed="11.32" duration="319.00" routeLength="2795.12" waitingTime="52.00" waitingCount="1" stopTime="0.00" timeLoss="76.23" rerouteNo="0" devices="tripinfo_NS_5" vType="typeNormal" speedFactor="0.83" vaporized=""/>
    <tripinfo id="NS_57" depart="44.00" departLane="E2_0" departPos="5.10" departSpeed="0.00" departDelay="1.00" arrival="327.00" arrivalLane="-E4_0" arrivalPos="1386.40" arrivalSpeed="12.64" duration="283.00" routeLength="2795.12" waitingTime="50.00" waitingCount="1" stopTime="0.00" timeLoss="106.21" rerouteNo="0" devices="tripinfo_NS_57" vType="typeNormal" speedFactor="1.14" vaporized=""/>
    <tripinfo id="NS_63" depart="47.00" departLane="E2_0" departPos="5.10" departSpeed="0.00" departDelay="0.00" arrival="328.00" arrivalLane="-E4_0" arrivalPos="1386.40" arrivalSpeed="12.50" duration="281.00" routeLength="2795.12" waitingTime="35.00" waitingCount="1" stopTime="0.00" timeLoss="77.07" rerouteNo="0" devices="tripinfo_NS_63" vType="typeNormal" speedFactor="0.99" vaporized=""/>
    <tripinfo id="EN_101" depart="103.00" departLane="E3_0" departPos="5.10" departSpeed="0.00" departDelay="15.00" arrival="328.00" arrivalLane="-E2_0" arrivalPos="1386.40" arrivalSpeed="12.14" duration="225.00" routeLength="2782.27" waitingTime="0.00" waitingCount="0" stopTime="0.00" timeLoss="14.17" rerouteNo="0" devices="tripinfo_EN_101" vType="typeNormal" speedFactor="0.96" vaporized=""/>
    <tripinfo id="SE_11" depart="8.00" departLane="E4_0" departPos="5.10" departSpeed="0.00" departDelay="1.00" arrival="329.00" arrivalLane="-E3_0" arrivalPos="1386.40" arrivalSpeed="13.85" duration="321.00" routeLength="2782.27" waitingTime="106.00" waitingCount="1" stopTime="0.00" timeLoss="124.96" rerouteNo="0" devices="tripinfo_SE_11" vType="typeNormal" speedFactor="1.03" vaporized=""/>
    <tripinfo id="EN_114" depart="124.00" departLane="E3_0" departPos="5.10" departSpeed="0.00" departDelay="26.00" arrival="329.00" arrivalLane="-E2_0" arrivalPos="1386.40" arrivalSpeed="14.90" duration="205.00" routeLength="2782.27" waitingTime="0.00" waitingCount="0" stopTime="0.00" timeLoss="21.41" rerouteNo="0" devices="tripinfo_EN_114" vType="typeNormal" speedFactor="1.10" vaporized=""/>
    <tripinfo id="NS_98" depart="86.00" departLane="E2_0" departPos="5.10" departSpeed="0.00" departDelay="0.00" arrival="330.00" arrivalLane="-E4_0" arrivalPos="1386.40" arrivalSpeed="15.30" duration="244.00" routeLength="2795.12" waitingTime="10.00" waitingCount="1" stopTime="0.00" timeLoss="64.08" rerouteNo="0" devices="tripinfo_NS_98" vType="typeNormal" speedFactor="1.12" vaporized=""/>
    <tripinfo id="SE_31" depart="24.00" departLane="E4_0" departPos="5.10" departSpeed="0.00" departDelay="2.00" arrival="331.00" arrivalLane="-E3_0" arrivalPos="1386.40" arrivalSpeed="15.76" duration="307.00" routeLength="2782.27" waitingTime="104.00" waitingCount="1" stopTime="0.00" timeLoss="132.14" rerouteNo="0" devices="tripinfo_SE_31" vType="typeNormal" speedFactor="1.15" vaporized=""/>
    <tripinfo id="NS_124" depart="105.00" departLane="E2_0" departPos="5.10" departSpeed="0.00" departDelay="0.00" arrival="332.00" arrivalLane="-E4_0" arrivalPos="1386.40" arrivalSpeed="13.63" duration="227.00" routeLength="2795.12" waitingTime="0.00" waitingCount="0" stopTime="0.00" timeLoss="36.64" rerouteNo="0" devices="tripinfo_NS_124" vType="typeNormal" speedFactor="1.06" vaporized=""/>
    <tripinfo id="NS_104" depart="92.00" departLane="E2_0" departPos="5.10" departSpeed="0.00" departDelay="1.00" arrival="334.00" arrivalLane="-E4_0" arrivalPos="1386.40" arrivalSpeed="11.72" duration="242.00" routeLength="2795.12" waitingTime="0.00" waitingCount="0" stopTime="0.00" timeLoss="16.24" rerouteNo="0" devices="tripinfo_NS_104" vType="typeNormal" speedFactor="0.89" vaporized=""/>
    <tripinfo id="NS_126" depart="110.00" departLane="E2_0" departPos="5.10" departSpeed="0.00" departDelay="0.00" arrival="336.00" arrivalLane="-E4_0" arrivalPos="1386.40" arrivalSpeed="13.85" duration="226.00" routeLength="2795.12" waitingTime="0.00" waitingCount="0" stopTime="0.00" timeLoss="30.14" rerouteNo="0" devices="tripinfo_NS_126" vType="typeNormal" speedFactor="1.03" vaporized=""/>
    <tripinfo id="ES_12" depart="9.00" departLane="E3_0" departPos="5.10" departSpeed="0.00" departDelay="2.00" arrival="337.00" arrivalLane="-E4_0" arrivalPos="1386.40" arrivalSpeed="14.28" duration="328.00" routeLength="2792.21" waitingTime="107.00" waitingCount="1" stopTime="0.00" timeLoss="135.31" rerouteNo="0" devices="tripinfo_ES_12" vType="typeNormal" speedFactor="1.05" vaporized=""/>
    <tripinfo id="ES_35" depart="25.00" departLane="E3_0" departPos="5.10" departSpeed="0.00" departDelay="1.00" arrival="339.00" arrivalLane="-E4_0" arrivalPos="1386.40" arrivalSpeed="13.29" duration="314.00" routeLength="2792.21" waitingTime="91.00" waitingCount="1" stopTime="0.00" timeLoss="115.87" rerouteNo="0" devices="tripinfo_ES_35" vType="typeNormal" speedFactor="1.02" vaporized=""/>
    <tripinfo id="EW_72" depart="67.00" departLane="E3_0" departPos="5.10" departSpeed="0.00" departDelay="8.00" arrival="339.00" arrivalLane="-E1_0" arrivalPos="1386.40" arrivalSpeed="12.50" duration="272.00" routeLength="2795.12" waitingTime="37.00" waitingCount="1" stopTime="0.00" timeLoss="57.45" rerouteNo="0" devices="tripinfo_EW_72" vType="typeNormal" speedFactor="0.94" vaporized=""/>
    <tripinfo id="ES_43" depart="34.00" departLane="E3_0" departPos="5.10" departSpeed="0.00" departDelay="2.00" arrival="341.00" arrivalLane="-E4_0" arrivalPos="1386.40" arrivalSpeed="13.65" duration="307.00" routeLength="2792.21" waitingTime="85.00" waitingCount="1" stopTime="0.00" timeLoss="112.14" rerouteNo="0" devices="tripinfo_ES_43" vType="typeNormal" speedFactor="1.04" vaporized=""/>
    <tripinfo id="EW_95" depart="94.00" departLane="E3_0" departPos="5.10" departSpeed="0.00" departDelay="9.00" arrival="341.00" arrivalLane="-E1_0" arrivalPos="1386.40" arrivalSpeed="13.90" duration="247.00" routeLength="2795.12" waitingTime="25.00" waitingCount="1" stopTime="0.00" timeLoss="55.71" rerouteNo="0" devices="tripinfo_EW_95" vType="typeNormal" speedFactor="1.06" vaporized=""/>
    <tripinfo id="ES_44" depart="37.00" departLane="E3_0" departPos="5.10" departSpeed="0.00" departDelay="4.00" arrival="342.00" arrivalLane="-E4_0" arrivalPos="1386.40" arrivalSpeed="13.98" duration="305.00" routeLength="2792.21" waitingTime="83.00" waitingCount="1" stopTime="0.00" timeLoss="111.85" rerouteNo="0" devices="tripinfo_ES_44" vType="typeNormal" speedFactor="1.04" vaporized=""/>